# ODT 1.0
# Table Start
## mmGraph output
# Columns:  {Oxs_RungeKuttaEvolve:evolve:Total energy} {Oxs_RungeKuttaEvolve:evolve:Energy calc count} {Oxs_RungeKuttaEvolve:evolve:Max dm/dt} Oxs_RungeKuttaEvolve:evolve:dE/dt {Oxs_RungeKuttaEvolve:evolve:Delta E} Oxs_ScriptUZeeman::Energy Oxs_ScriptUZeeman::B Oxs_ScriptUZeeman::Bx Oxs_ScriptUZeeman::By Oxs_ScriptUZeeman::Bz Oxs_Demag::Energy   Oxs_UniaxialAnisotropy::Energy Oxs_UniformExchange::Energy {Oxs_UniformExchange::Max Spin Ang} {Oxs_UniformExchange::Stage Max Spin Ang} {Oxs_UniformExchange::Run Max Spin Ang} Oxs_TimeDriver::Iteration {Oxs_TimeDriver::Stage iteration} Oxs_TimeDriver::Stage Oxs_TimeDriver::mx  Oxs_TimeDriver::my  Oxs_TimeDriver::mz  {Oxs_TimeDriver::Last time step} {Oxs_TimeDriver::Simulation time}
# Units:                        J                       {}                 deg/ns                J/s                    J             J                mT                  mT                  mT                  mT                 J                         J                  J                      deg                    deg                   deg            {}                      {}            {}                 {}                  {}                  {}                         s                    s  
            3.838071178520036e-28  1                   0.1248881154646159 -4.085407144120196e-24  0                   0                   0                   0                   0                   0                   3.838071178520036e-28  0                   0                   0                   0                   0                   0                   0                   0                   0                   0                   0.9999999999999999  0                   0                 
            3.838071178520036e-28  2                   0.1248881154646159 -4.085407144120196e-24  0                   0                   0                   0                   0                   0                   3.838071178520036e-28  0                   0                   0                   0                   0                   0                   0                   0                   0                   0                   0.9999999999999999  0                   0                 
            3.838071178520036e-28  2                   0.1248881154646159 -4.085407144120196e-24  0                   0                   0                   0                   0                   0                   3.838071178520036e-28  0                   0                   0                   0                   0                   0                   0                   0                   0                   0                   0.9999999999999999  0                   0                 
# Table End
